LAMMPS data file. CGCMM style. $Id$
 13671 atoms
 270 bonds
 540 angles
 0 impropers
 6 atom types
 1 bond types
 1 angle types
 0 dihedral types
 0 improper types
 -25.00   25.00  xlo xhi
 -25.00   25.00  ylo yhi
 -25.00   25.00  zlo zhi

 Atoms

1 1 1 -24.662121 -24.662121 -24.662121 # 1 
2 2 1 -23.840050 -24.662121 -23.840050 # 1 
3 3 1 -23.017979 -24.662121 -24.662121 # 1 
4 4 1 -22.195910 -24.662121 -23.840050 # 1 
5 5 1 -21.373838 -24.662121 -24.662121 # 1 
6 6 1 -20.551767 -24.662121 -23.840050 # 1 
7 7 1 -19.729696 -24.662121 -24.662121 # 1 
8 8 1 -18.907625 -24.662121 -23.840050 # 1 
9 9 1 -18.085556 -24.662121 -24.662121 # 1 
10 10 1 -17.263485 -24.662121 -23.840050 # 1 
11 11 1 -16.441414 -24.662121 -24.662121 # 1 
12 12 1 -15.619343 -24.662121 -23.840050 # 1 
13 13 1 -14.797273 -24.662121 -24.662121 # 1 
14 14 1 -13.975202 -24.662121 -23.840050 # 1 
15 15 1 -13.153131 -24.662121 -24.662121 # 1 
16 16 1 -12.331060 -24.662121 -23.840050 # 1 
17 17 1 -11.508989 -24.662121 -24.662121 # 1 
18 18 1 -10.686919 -24.662121 -23.840050 # 1 
19 19 1 -9.864848 -24.662121 -24.662121 # 1 
20 20 1 -9.042778 -24.662121 -23.840050 # 1 
21 21 1 -24.662121 -24.662121 -23.017979 # 1 
22 22 1 -23.840050 -24.662121 -22.195910 # 1 
23 23 1 -23.017979 -24.662121 -23.017979 # 1 
24 24 1 -22.195910 -24.662121 -22.195910 # 1 
25 25 1 -21.373838 -24.662121 -23.017979 # 1 
26 26 1 -20.551767 -24.662121 -22.195910 # 1 
27 27 1 -19.729696 -24.662121 -23.017979 # 1 
28 28 1 -18.907625 -24.662121 -22.195910 # 1 
29 29 1 -18.085556 -24.662121 -23.017979 # 1 
30 30 1 -17.263485 -24.662121 -22.195910 # 1 
31 31 1 -16.441414 -24.662121 -23.017979 # 1 
32 32 1 -15.619343 -24.662121 -22.195910 # 1 
33 33 1 -14.797273 -24.662121 -23.017979 # 1 
34 34 1 -13.975202 -24.662121 -22.195910 # 1 
35 35 1 -13.153131 -24.662121 -23.017979 # 1 
36 36 1 -12.331060 -24.662121 -22.195910 # 1 
37 37 1 -11.508989 -24.662121 -23.017979 # 1 
38 38 1 -10.686919 -24.662121 -22.195910 # 1 
39 39 1 -9.864848 -24.662121 -23.017979 # 1 
40 40 1 -9.042778 -24.662121 -22.195910 # 1 
41 41 1 -24.662121 -24.662121 -21.373838 # 1 
42 42 1 -23.840050 -24.662121 -20.551767 # 1 
43 43 1 -23.017979 -24.662121 -21.373838 # 1 
44 44 1 -22.195910 -24.662121 -20.551767 # 1 
45 45 1 -21.373838 -24.662121 -21.373838 # 1 
46 46 1 -20.551767 -24.662121 -20.551767 # 1 
47 47 1 -19.729696 -24.662121 -21.373838 # 1 
48 48 1 -18.907625 -24.662121 -20.551767 # 1 
49 49 1 -18.085556 -24.662121 -21.373838 # 1 
50 50 1 -17.263485 -24.662121 -20.551767 # 1 
51 51 1 -16.441414 -24.662121 -21.373838 # 1 
52 52 1 -15.619343 -24.662121 -20.551767 # 1 
53 53 1 -14.797273 -24.662121 -21.373838 # 1 
54 54 1 -13.975202 -24.662121 -20.551767 # 1 
55 55 1 -13.153131 -24.662121 -21.373838 # 1 
56 56 1 -12.331060 -24.662121 -20.551767 # 1 
57 57 1 -11.508989 -24.662121 -21.373838 # 1 
58 58 1 -10.686919 -24.662121 -20.551767 # 1 
59 59 1 -9.864848 -24.662121 -21.373838 # 1 
60 60 1 -9.042778 -24.662121 -20.551767 # 1 
61 61 1 -24.662121 -24.662121 -19.729696 # 1 
62 62 1 -23.840050 -24.662121 -18.907625 # 1 
63 63 1 -23.017979 -24.662121 -19.729696 # 1 
64 64 1 -22.195910 -24.662121 -18.907625 # 1 
65 65 1 -21.373838 -24.662121 -19.729696 # 1 
66 66 1 -20.551767 -24.662121 -18.907625 # 1 
67 67 1 -19.729696 -24.662121 -19.729696 # 1 
68 68 1 -18.907625 -24.662121 -18.907625 # 1 
69 69 1 -18.085556 -24.662121 -19.729696 # 1 
70 70 1 -17.263485 -24.662121 -18.907625 # 1 
71 71 1 -16.441414 -24.662121 -19.729696 # 1 
72 72 1 -15.619343 -24.662121 -18.907625 # 1 
73 73 1 -14.797273 -24.662121 -19.729696 # 1 
74 74 1 -13.975202 -24.662121 -18.907625 # 1 
75 75 1 -13.153131 -24.662121 -19.729696 # 1 
76 76 1 -12.331060 -24.662121 -18.907625 # 1 
77 77 1 -11.508989 -24.662121 -19.729696 # 1 
78 78 1 -10.686919 -24.662121 -18.907625 # 1 
79 79 1 -9.864848 -24.662121 -19.729696 # 1 
80 80 1 -9.042778 -24.662121 -18.907625 # 1 
81 81 1 -24.662121 -24.662121 -18.085556 # 1 
82 82 1 -23.840050 -24.662121 -17.263485 # 1 
83 83 1 -23.017979 -24.662121 -18.085556 # 1 
84 84 1 -22.195910 -24.662121 -17.263485 # 1 
85 85 1 -21.373838 -24.662121 -18.085556 # 1 
86 86 1 -20.551767 -24.662121 -17.263485 # 1 
87 87 1 -19.729696 -24.662121 -18.085556 # 1 
88 88 1 -18.907625 -24.662121 -17.263485 # 1 
89 89 1 -18.085556 -24.662121 -18.085556 # 1 
90 90 1 -17.263485 -24.662121 -17.263485 # 1 
91 91 1 -16.441414 -24.662121 -18.085556 # 1 
92 92 1 -15.619343 -24.662121 -17.263485 # 1 
93 93 1 -14.797273 -24.662121 -18.085556 # 1 
94 94 1 -13.975202 -24.662121 -17.263485 # 1 
95 95 1 -13.153131 -24.662121 -18.085556 # 1 
96 96 1 -12.331060 -24.662121 -17.263485 # 1 
97 97 1 -11.508989 -24.662121 -18.085556 # 1 
98 98 1 -10.686919 -24.662121 -17.263485 # 1 
99 99 1 -9.864848 -24.662121 -18.085556 # 1 
100 100 1 -9.042778 -24.662121 -17.263485 # 1 
101 101 1 -24.662121 -24.662121 -16.441414 # 1 
102 102 1 -23.840050 -24.662121 -15.619343 # 1 
103 103 1 -23.017979 -24.662121 -16.441414 # 1 
104 104 1 -22.195910 -24.662121 -15.619343 # 1 
105 105 1 -21.373838 -24.662121 -16.441414 # 1 
106 106 1 -20.551767 -24.662121 -15.619343 # 1 
107 107 1 -19.729696 -24.662121 -16.441414 # 1 
108 108 1 -18.907625 -24.662121 -15.619343 # 1 
109 109 1 -18.085556 -24.662121 -16.441414 # 1 
110 110 1 -17.263485 -24.662121 -15.619343 # 1 
111 111 1 -16.441414 -24.662121 -16.441414 # 1 
112 112 1 -15.619343 -24.662121 -15.619343 # 1 
113 113 1 -14.797273 -24.662121 -16.441414 # 1 
114 114 1 -13.975202 -24.662121 -15.619343 # 1 
115 115 1 -13.153131 -24.662121 -16.441414 # 1 
116 116 1 -12.331060 -24.662121 -15.619343 # 1 
117 117 1 -11.508989 -24.662121 -16.441414 # 1 
118 118 1 -10.686919 -24.662121 -15.619343 # 1 
119 119 1 -9.864848 -24.662121 -16.441414 # 1 
120 120 1 -9.042778 -24.662121 -15.619343 # 1 
121 121 1 -24.662121 -24.662121 -14.797273 # 1 
122 122 1 -23.840050 -24.662121 -13.975202 # 1 
123 123 1 -23.017979 -24.662121 -14.797273 # 1 
124 124 1 -22.195910 -24.662121 -13.975202 # 1 
125 125 1 -21.373838 -24.662121 -14.797273 # 1 
126 126 1 -20.551767 -24.662121 -13.975202 # 1 
127 127 1 -19.729696 -24.662121 -14.797273 # 1 
128 128 1 -18.907625 -24.662121 -13.975202 # 1 
129 129 1 -18.085556 -24.662121 -14.797273 # 1 
130 130 1 -17.263485 -24.662121 -13.975202 # 1 
131 131 1 -16.441414 -24.662121 -14.797273 # 1 
132 132 1 -15.619343 -24.662121 -13.975202 # 1 
133 133 1 -14.797273 -24.662121 -14.797273 # 1 
134 134 1 -13.975202 -24.662121 -13.975202 # 1 
135 135 1 -13.153131 -24.662121 -14.797273 # 1 
136 136 1 -12.331060 -24.662121 -13.975202 # 1 
137 137 1 -11.508989 -24.662121 -14.797273 # 1 
138 138 1 -10.686919 -24.662121 -13.975202 # 1 
139 139 1 -9.864848 -24.662121 -14.797273 # 1 
140 140 1 -9.042778 -24.662121 -13.975202 # 1 
141 141 1 -24.662121 -24.662121 -13.153131 # 1 
142 142 1 -23.840050 -24.662121 -12.331060 # 1 
143 143 1 -23.017979 -24.662121 -13.153131 # 1 
144 144 1 -22.195910 -24.662121 -12.331060 # 1 
145 145 1 -21.373838 -24.662121 -13.153131 # 1 
146 146 1 -20.551767 -24.662121 -12.331060 # 1 
147 147 1 -19.729696 -24.662121 -13.153131 # 1 
148 148 1 -18.907625 -24.662121 -12.331060 # 1 
149 149 1 -18.085556 -24.662121 -13.153131 # 1 
150 150 1 -17.263485 -24.662121 -12.331060 # 1 
151 151 1 -16.441414 -24.662121 -13.153131 # 1 
152 152 1 -15.619343 -24.662121 -12.331060 # 1 
153 153 1 -14.797273 -24.662121 -13.153131 # 1 
154 154 1 -13.975202 -24.662121 -12.331060 # 1 
155 155 1 -13.153131 -24.662121 -13.153131 # 1 
156 156 1 -12.331060 -24.662121 -12.331060 # 1 
157 157 1 -11.508989 -24.662121 -13.153131 # 1 
158 158 1 -10.686919 -24.662121 -12.331060 # 1 
159 159 1 -9.864848 -24.662121 -13.153131 # 1 
160 160 1 -9.042778 -24.662121 -12.331060 # 1 
161 161 1 -24.662121 -24.662121 -11.508989 # 1 
162 162 1 -23.840050 -24.662121 -10.686919 # 1 
163 163 1 -23.017979 -24.662121 -11.508989 # 1 
164 164 1 -22.195910 -24.662121 -10.686919 # 1 
165 165 1 -21.373838 -24.662121 -11.508989 # 1 
166 166 1 -20.551767 -24.662121 -10.686919 # 1 
167 167 1 -19.729696 -24.662121 -11.508989 # 1 
168 168 1 -18.907625 -24.662121 -10.686919 # 1 
169 169 1 -18.085556 -24.662121 -11.508989 # 1 
170 170 1 -17.263485 -24.662121 -10.686919 # 1 
171 171 1 -16.441414 -24.662121 -11.508989 # 1 
172 172 1 -15.619343 -24.662121 -10.686919 # 1 
173 173 1 -14.797273 -24.662121 -11.508989 # 1 
174 174 1 -13.975202 -24.662121 -10.686919 # 1 
175 175 1 -13.153131 -24.662121 -11.508989 # 1 
176 176 1 -12.331060 -24.662121 -10.686919 # 1 
177 177 1 -11.508989 -24.662121 -11.508989 # 1 
178 178 1 -10.686919 -24.662121 -10.686919 # 1 
179 179 1 -9.864848 -24.662121 -11.508989 # 1 
180 180 1 -9.042778 -24.662121 -10.686919 # 1 
181 181 1 -24.662121 -24.662121 -9.864848 # 1 
182 182 1 -23.840050 -24.662121 -9.042778 # 1 
183 183 1 -23.017979 -24.662121 -9.864848 # 1 
184 184 1 -22.195910 -24.662121 -9.042778 # 1 
185 185 1 -21.373838 -24.662121 -9.864848 # 1 
186 186 1 -20.551767 -24.662121 -9.042778 # 1 
187 187 1 -19.729696 -24.662121 -9.864848 # 1 
188 188 1 -18.907625 -24.662121 -9.042778 # 1 
189 189 1 -18.085556 -24.662121 -9.864848 # 1 
190 190 1 -17.263485 -24.662121 -9.042778 # 1 
191 191 1 -16.441414 -24.662121 -9.864848 # 1 
192 192 1 -15.619343 -24.662121 -9.042778 # 1 
193 193 1 -14.797273 -24.662121 -9.864848 # 1 
194 194 1 -13.975202 -24.662121 -9.042778 # 1 
195 195 1 -13.153131 -24.662121 -9.864848 # 1 
196 196 1 -12.331060 -24.662121 -9.042778 # 1 
197 197 1 -11.508989 -24.662121 -9.864848 # 1 
198 198 1 -10.686919 -24.662121 -9.042778 # 1 
199 199 1 -9.864848 -24.662121 -9.864848 # 1 
200 200 1 -9.042778 -24.662121 -9.042778 # 1 
201 201 1 -24.662121 -24.662121 -8.220707 # 1 
202 202 1 -23.840050 -24.662121 -7.398636 # 1 
203 203 1 -23.017979 -24.662121 -8.220707 # 1 
204 204 1 -22.195910 -24.662121 -7.398636 # 1 
205 205 1 -21.373838 -24.662121 -8.220707 # 1 
206 206 1 -20.551767 -24.662121 -7.398636 # 1 
207 207 1 -19.729696 -24.662121 -8.220707 # 1 
208 208 1 -18.907625 -24.662121 -7.398636 # 1 
209 209 1 -18.085556 -24.662121 -8.220707 # 1 
210 210 1 -17.263485 -24.662121 -7.398636 # 1 
211 211 1 -16.441414 -24.662121 -8.220707 # 1 
212 212 1 -15.619343 -24.662121 -7.398636 # 1 
213 213 1 -14.797273 -24.662121 -8.220707 # 1 
214 214 1 -13.975202 -24.662121 -7.398636 # 1 
215 215 1 -13.153131 -24.662121 -8.220707 # 1 
216 216 1 -12.331060 -24.662121 -7.398636 # 1 
217 217 1 -11.508989 -24.662121 -8.220707 # 1 
218 218 1 -10.686919 -24.662121 -7.398636 # 1 
219 219 1 -9.864848 -24.662121 -8.220707 # 1 
220 220 1 -9.042778 -24.662121 -7.398636 # 1 
221 221 1 -24.662121 -24.662121 -6.576566 # 1 
222 222 1 -23.840050 -24.662121 -5.754495 # 1 
223 223 1 -23.017979 -24.662121 -6.576566 # 1 
224 224 1 -22.195910 -24.662121 -5.754495 # 1 
225 225 1 -21.373838 -24.662121 -6.576566 # 1 
226 226 1 -20.551767 -24.662121 -5.754495 # 1 
227 227 1 -19.729696 -24.662121 -6.576566 # 1 
228 228 1 -18.907625 -24.662121 -5.754495 # 1 
229 229 1 -18.085556 -24.662121 -6.576566 # 1 
230 230 1 -17.263485 -24.662121 -5.754495 # 1 
231 231 1 -16.441414 -24.662121 -6.576566 # 1 
232 232 1 -15.619343 -24.662121 -5.754495 # 1 
233 233 1 -14.797273 -24.662121 -6.576566 # 1 
234 234 1 -13.975202 -24.662121 -5.754495 # 1 
235 235 1 -13.153131 -24.662121 -6.576566 # 1 
236 236 1 -12.331060 -24.662121 -5.754495 # 1 
237 237 1 -11.508989 -24.662121 -6.576566 # 1 
238 238 1 -10.686919 -24.662121 -5.754495 # 1 
239 239 1 -9.864848 -24.662121 -6.576566 # 1 
240 240 1 -9.042778 -24.662121 -5.754495 # 1 
241 241 1 -24.662121 -24.662121 -4.932424 # 1 
242 242 1 -23.840050 -24.662121 -4.110353 # 1 
243 243 1 -23.017979 -24.662121 -4.932424 # 1 
244 244 1 -22.195910 -24.662121 -4.110353 # 1 
245 245 1 -21.373838 -24.662121 -4.932424 # 1 
246 246 1 -20.551767 -24.662121 -4.110353 # 1 
247 247 1 -19.729696 -24.662121 -4.932424 # 1 
248 248 1 -18.907625 -24.662121 -4.110353 # 1 
249 249 1 -18.085556 -24.662121 -4.932424 # 1 
250 250 1 -17.263485 -24.662121 -4.110353 # 1 
251 251 1 -16.441414 -24.662121 -4.932424 # 1 
252 252 1 -15.619343 -24.662121 -4.110353 # 1 
253 253 1 -14.797273 -24.662121 -4.932424 # 1 
254 254 1 -13.975202 -24.662121 -4.110353 # 1 
255 255 1 -13.153131 -24.662121 -4.932424 # 1 
256 256 1 -12.331060 -24.662121 -4.110353 # 1 
257 257 1 -11.508989 -24.662121 -4.932424 # 1 
258 258 1 -10.686919 -24.662121 -4.110353 # 1 
259 259 1 -9.864848 -24.662121 -4.932424 # 1 
260 260 1 -9.042778 -24.662121 -4.110353 # 1 
261 261 1 -24.662121 -24.662121 -3.288283 # 1 
262 262 1 -23.840050 -24.662121 -2.466212 # 1 
263 263 1 -23.017979 -24.662121 -3.288283 # 1 
264 264 1 -22.195910 -24.662121 -2.466212 # 1 
265 265 1 -21.373838 -24.662121 -3.288283 # 1 
266 266 1 -20.551767 -24.662121 -2.466212 # 1 
267 267 1 -19.729696 -24.662121 -3.288283 # 1 
268 268 1 -18.907625 -24.662121 -2.466212 # 1 
269 269 1 -18.085556 -24.662121 -3.288283 # 1 
270 270 1 -17.263485 -24.662121 -2.466212 # 1 
271 271 1 -16.441414 -24.662121 -3.288283 # 1 
272 272 1 -15.619343 -24.662121 -2.466212 # 1 
273 273 1 -14.797273 -24.662121 -3.288283 # 1 
274 274 1 -13.975202 -24.662121 -2.466212 # 1 
275 275 1 -13.153131 -24.662121 -3.288283 # 1 
276 276 1 -12.331060 -24.662121 -2.466212 # 1 
277 277 1 -11.508989 -24.662121 -3.288283 # 1 
278 278 1 -10.686919 -24.662121 -2.466212 # 1 
279 279 1 -9.864848 -24.662121 -3.288283 # 1 
280 280 1 -9.042778 -24.662121 -2.466212 # 1 
281 281 1 -24.662121 -24.662121 -1.644141 # 1 
282 282 1 -23.840050 -24.662121 -0.822071 # 1 
283 283 1 -23.017979 -24.662121 -1.644141 # 1 
284 284 1 -22.195910 -24.662121 -0.822071 # 1 
285 285 1 -21.373838 -24.662121 -1.644141 # 1 
286 286 1 -20.551767 -24.662121 -0.822071 # 1 
287 287 1 -19.729696 -24.662121 -1.644141 # 1 
288 288 1 -18.907625 -24.662121 -0.822071 # 1 
289 289 1 -18.085556 -24.662121 -1.644141 # 1 
290 290 1 -17.263485 -24.662121 -0.822071 # 1 
291 291 1 -16.441414 -24.662121 -1.644141 # 1 
292 292 1 -15.619343 -24.662121 -0.822071 # 1 
293 293 1 -14.797273 -24.662121 -1.644141 # 1 
294 294 1 -13.975202 -24.662121 -0.822071 # 1 
295 295 1 -13.153131 -24.662121 -1.644141 # 1 
296 296 1 -12.331060 -24.662121 -0.822071 # 1 
297 297 1 -11.508989 -24.662121 -1.644141 # 1 
298 298 1 -10.686919 -24.662121 -0.822071 # 1 
299 299 1 -9.864848 -24.662121 -1.644141 # 1 
300 300 1 -9.042778 -24.662121 -0.822071 # 1 
301 301 1 -24.662121 -24.662121 0.000000 # 1 
302 302 1 -23.840050 -24.662121 0.822071 # 1 
303 303 1 -23.017979 -24.662121 0.000000 # 1 
304 304 1 -22.195910 -24.662121 0.822071 # 1 
305 305 1 -21.373838 -24.662121 0.000000 # 1 
306 306 1 -20.551767 -24.662121 0.822071 # 1 
307 307 1 -19.729696 -24.662121 0.000000 # 1 
308 308 1 -18.907625 -24.662121 0.822071 # 1 
309 309 1 -18.085556 -24.662121 0.000000 # 1 
310 310 1 -17.263485 -24.662121 0.822071 # 1 
311 311 1 -16.441414 -24.662121 0.000000 # 1 
312 312 1 -15.619343 -24.662121 0.822071 # 1 
313 313 1 -14.797273 -24.662121 0.000000 # 1 
314 314 1 -13.975202 -24.662121 0.822071 # 1 
315 315 1 -13.153131 -24.662121 0.000000 # 1 
316 316 1 -12.331060 -24.662121 0.822071 # 1 
317 317 1 -11.508989 -24.662121 0.000000 # 1 
318 318 1 -10.686919 -24.662121 0.822071 # 1 
319 319 1 -9.864848 -24.662121 0.000000 # 1 
320 320 1 -9.042778 -24.662121 0.822071 # 1 
321 321 1 -24.662121 -24.662121 1.644141 # 1 
322 322 1 -23.840050 -24.662121 2.466212 # 1 
323 323 1 -23.017979 -24.662121 1.644141 # 1 
324 324 1 -22.195910 -24.662121 2.466212 # 1 
325 325 1 -21.373838 -24.662121 1.644141 # 1 
326 326 1 -20.551767 -24.662121 2.466212 # 1 
327 327 1 -19.729696 -24.662121 1.644141 # 1 
328 328 1 -18.907625 -24.662121 2.466212 # 1 
329 329 1 -18.085556 -24.662121 1.644141 # 1 
330 330 1 -17.263485 -24.662121 2.466212 # 1 
331 331 1 -16.441414 -24.662121 1.644141 # 1 
332 332 1 -15.619343 -24.662121 2.466212 # 1 
333 333 1 -14.797273 -24.662121 1.644141 # 1 
334 334 1 -13.975202 -24.662121 2.466212 # 1 
335 335 1 -13.153131 -24.662121 1.644141 # 1 
336 336 1 -12.331060 -24.662121 2.466212 # 1 
337 337 1 -11.508989 -24.662121 1.644141 # 1 
338 338 1 -10.686919 -24.662121 2.466212 # 1 
339 339 1 -9.864848 -24.662121 1.644141 # 1 
340 340 1 -9.042778 -24.662121 2.466212 # 1 
341 341 1 -24.662121 -24.662121 3.288283 # 1 
342 342 1 -23.840050 -24.662121 4.110353 # 1 
343 343 1 -23.017979 -24.662121 3.288283 # 1 
344 344 1 -22.195910 -24.662121 4.110353 # 1 
345 345 1 -21.373838 -24.662121 3.288283 # 1 
346 346 1 -20.551767 -24.662121 4.110353 # 1 
347 347 1 -19.729696 -24.662121 3.288283 # 1 
348 348 1 -18.907625 -24.662121 4.110353 # 1 
349 349 1 -18.085556 -24.662121 3.288283 # 1 
350 350 1 -17.263485 -24.662121 4.110353 # 1 
351 351 1 -16.441414 -24.662121 3.288283 # 1 
352 352 1 -15.619343 -24.662121 4.110353 # 1 
353 353 1 -14.797273 -24.662121 3.288283 # 1 
354 354 1 -13.975202 -24.662121 4.110353 # 1 
355 355 1 -13.153131 -24.662121 3.288283 # 1 
356 356 1 -12.331060 -24.662121 4.110353 # 1 
357 357 1 -11.508989 -24.662121 3.288283 # 1 
358 358 1 -10.686919 -24.662121 4.110353 # 1 
359 359 1 -9.864848 -24.662121 3.288283 # 1 
360 360 1 -9.042778 -24.662121 4.110353 # 1 
361 361 1 -24.662121 -24.662121 4.932424 # 1 
362 362 1 -23.840050 -24.662121 5.754495 # 1 
363 363 1 -23.017979 -24.662121 4.932424 # 1 
364 364 1 -22.195910 -24.662121 5.754495 # 1 
365 365 1 -21.373838 -24.662121 4.932424 # 1 
366 366 1 -20.551767 -24.662121 5.754495 # 1 
367 367 1 -19.729696 -24.662121 4.932424 # 1 
368 368 1 -18.907625 -24.662121 5.754495 # 1 
369 369 1 -18.085556 -24.662121 4.932424 # 1 
370 370 1 -17.263485 -24.662121 5.754495 # 1 
371 371 1 -16.441414 -24.662121 4.932424 # 1 
372 372 1 -15.619343 -24.662121 5.754495 # 1 
373 373 1 -14.797273 -24.662121 4.932424 # 1 
374 374 1 -13.975202 -24.662121 5.754495 # 1 
375 375 1 -13.153131 -24.662121 4.932424 # 1 
376 376 1 -12.331060 -24.662121 5.754495 # 1 
377 377 1 -11.508989 -24.662121 4.932424 # 1 
378 378 1 -10.686919 -24.662121 5.754495 # 1 
379 379 1 -9.864848 -24.662121 4.932424 # 1 
380 380 1 -9.042778 -24.662121 5.754495 # 1 
381 381 1 -24.662121 -24.662121 6.576566 # 1 
382 382 1 -23.840050 -24.662121 7.398636 # 1 
383 383 1 -23.017979 -24.662121 6.576566 # 1 
384 384 1 -22.195910 -24.662121 7.398636 # 1 
385 385 1 -21.373838 -24.662121 6.576566 # 1 
386 386 1 -20.551767 -24.662121 7.398636 # 1 
387 387 1 -19.729696 -24.662121 6.576566 # 1 
388 388 1 -18.907625 -24.662121 7.398636 # 1 
389 389 1 -18.085556 -24.662121 6.576566 # 1 
390 390 1 -17.263485 -24.662121 7.398636 # 1 
391 391 1 -16.441414 -24.662121 6.576566 # 1 
392 392 1 -15.619343 -24.662121 7.398636 # 1 
393 393 1 -14.797273 -24.662121 6.576566 # 1 
394 394 1 -13.975202 -24.662121 7.398636 # 1 
395 395 1 -13.153131 -24.662121 6.576566 # 1 
396 396 1 -12.331060 -24.662121 7.398636 # 1 
397 397 1 -11.508989 -24.662121 6.576566 # 1 
398 398 1 -10.686919 -24.662121 7.398636 # 1 
399 399 1 -9.864848 -24.662121 6.576566 # 1 
400 400 1 -9.042778 -24.662121 7.398636 # 1 
401 401 1 -24.662121 -24.662121 8.220707 # 1 
402 402 1 -23.840050 -24.662121 9.042778 # 1 
403 403 1 -23.017979 -24.662121 8.220707 # 1 
404 404 1 -22.195910 -24.662121 9.042778 # 1 
405 405 1 -21.373838 -24.662121 8.220707 # 1 
406 406 1 -20.551767 -24.662121 9.042778 # 1 
407 407 1 -19.729696 -24.662121 8.220707 # 1 
408 408 1 -18.907625 -24.662121 9.042778 # 1 
409 409 1 -18.085556 -24.662121 8.220707 # 1 
410 410 1 -17.263485 -24.662121 9.042778 # 1 
411 411 1 -16.441414 -24.662121 8.220707 # 1 
412 412 1 -15.619343 -24.662121 9.042778 # 1 
413 413 1 -14.797273 -24.662121 8.220707 # 1 
414 414 1 -13.975202 -24.662121 9.042778 # 1 
415 415 1 -13.153131 -24.662121 8.220707 # 1 
416 416 1 -12.331060 -24.662121 9.042778 # 1 
417 417 1 -11.508989 -24.662121 8.220707 # 1 
418 418 1 -10.686919 -24.662121 9.042778 # 1 
419 419 1 -9.864848 -24.662121 8.220707 # 1 
420 420 1 -9.042778 -24.662121 9.042778 # 1 
421 421 1 -24.662121 -24.662121 9.864848 # 1 
422 422 1 -23.840050 -24.662121 10.686919 # 1 
423 423 1 -23.017979 -24.662121 9.864848 # 1 
424 424 1 -22.195910 -24.662121 10.686919 # 1 
425 425 1 -21.373838 -24.662121 9.864848 # 1 
426 426 1 -20.551767 -24.662121 10.686919 # 1 
427 427 1 -19.729696 -24.662121 9.864848 # 1 
428 428 1 -18.907625 -24.662121 10.686919 # 1 
429 429 1 -18.085556 -24.662121 9.864848 # 1 
430 430 1 -17.263485 -24.662121 10.686919 # 1 
431 431 1 -16.441414 -24.662121 9.864848 # 1 
432 432 1 -15.619343 -24.662121 10.686919 # 1 
433 433 1 -14.797273 -24.662121 9.864848 # 1 
434 434 1 -13.975202 -24.662121 10.686919 # 1 
435 435 1 -13.153131 -24.662121 9.864848 # 1 
436 436 1 -12.331060 -24.662121 10.686919 # 1 
437 437 1 -11.508989 -24.662121 9.864848 # 1 
438 438 1 -10.686919 -24.662121 10.686919 # 1 
439 439 1 -9.864848 -24.662121 9.864848 # 1 
440 440 1 -9.042778 -24.662121 10.686919 # 1 
441 441 1 -24.662121 -24.662121 11.508989 # 1 
442 442 1 -23.840050 -24.662121 12.331060 # 1 
443 443 1 -23.017979 -24.662121 11.508989 # 1 
444 444 1 -22.195910 -24.662121 12.331060 # 1 
445 445 1 -21.373838 -24.662121 11.508989 # 1 
446 446 1 -20.551767 -24.662121 12.331060 # 1 
447 447 1 -19.729696 -24.662121 11.508989 # 1 
448 448 1 -18.907625 -24.662121 12.331060 # 1 
449 449 1 -18.085556 -24.662121 11.508989 # 1 
450 450 1 -17.263485 -24.662121 12.331060 # 1 
451 451 1 -16.441414 -24.662121 11.508989 # 1 
452 452 1 -15.619343 -24.662121 12.331060 # 1 
453 453 1 -14.797273 -24.662121 11.508989 # 1 
454 454 1 -13.975202 -24.662121 12.331060 # 1 
455 455 1 -13.153131 -24.662121 11.508989 # 1 
456 456 1 -12.331060 -24.662121 12.331060 # 1 
457 457 1 -11.508989 -24.662121 11.508989 # 1 
458 458 1 -10.686919 -24.662121 12.331060 # 1 
459 459 1 -9.864848 -24.662121 11.508989 # 1 
460 460 1 -9.042778 -24.662121 12.331060 # 1 
461 461 1 -24.662121 -24.662121 13.153131 # 1 
462 462 1 -23.840050 -24.662121 13.975202 # 1 
463 463 1 -23.017979 -24.662121 13.153131 # 1 
464 464 1 -22.195910 -24.662121 13.975202 # 1 
465 465 1 -21.373838 -24.662121 13.153131 # 1 
466 466 1 -20.551767 -24.662121 13.975202 # 1 
467 467 1 -19.729696 -24.662121 13.153131 # 1 
468 468 1 -18.907625 -24.662121 13.975202 # 1 
469 469 1 -18.085556 -24.662121 13.153131 # 1 
470 470 1 -17.263485 -24.662121 13.975202 # 1 
471 471 1 -16.441414 -24.662121 13.153131 # 1 
472 472 1 -15.619343 -24.662121 13.975202 # 1 
473 473 1 -14.797273 -24.662121 13.153131 # 1 
474 474 1 -13.975202 -24.662121 13.975202 # 1 
475 475 1 -13.153131 -24.662121 13.153131 # 1 
476 476 1 -12.331060 -24.662121 13.975202 # 1 
477 477 1 -11.508989 -24.662121 13.153131 # 1 
478 478 1 -10.686919 -24.662121 13.975202 # 1 
479 479 1 -9.864848 -24.662121 13.153131 # 1 
480 480 1 -9.042778 -24.662121 13.975202 # 1 
481 481 1 -24.662121 -24.662121 14.797273 # 1 
482 482 1 -23.840050 -24.662121 15.619343 # 1 
483 483 1 -23.017979 -24.662121 14.797273 # 1 
484 484 1 -22.195910 -24.662121 15.619343 # 1 
485 485 1 -21.373838 -24.662121 14.797273 # 1 
486 486 1 -20.551767 -24.662121 15.619343 # 1 
487 487 1 -19.729696 -24.662121 14.797273 # 1 
488 488 1 -18.907625 -24.662121 15.619343 # 1 
489 489 1 -18.085556 -24.662121 14.797273 # 1 
490 490 1 -17.263485 -24.662121 15.619343 # 1 
491 491 1 -16.441414 -24.662121 14.797273 # 1 
492 492 1 -15.619343 -24.662121 15.619343 # 1 
493 493 1 -14.797273 -24.662121 14.797273 # 1 
494 494 1 -13.975202 -24.662121 15.619343 # 1 
495 495 1 -13.153131 -24.662121 14.797273 # 1 
496 496 1 -12.331060 -24.662121 15.619343 # 1 
497 497 1 -11.508989 -24.662121 14.797273 # 1 
498 498 1 -10.686919 -24.662121 15.619343 # 1 
499 499 1 -9.864848 -24.662121 14.797273 # 1 
500 500 1 -9.042778 -24.662121 15.619343 # 1 
501 501 1 -24.662121 -24.662121 16.441414 # 1 
502 502 1 -23.840050 -24.662121 17.263485 # 1 
503 503 1 -23.017979 -24.662121 16.441414 # 1 
504 504 1 -22.195910 -24.662121 17.263485 # 1 
505 505 1 -21.373838 -24.662121 16.441414 # 1 
506 506 1 -20.551767 -24.662121 17.263485 # 1 
507 507 1 -19.729696 -24.662121 16.441414 # 1 
508 508 1 -18.907625 -24.662121 17.263485 # 1 
509 509 1 -18.085556 -24.662121 16.441414 # 1 
510 510 1 -17.263485 -24.662121 17.263485 # 1 
511 511 1 -16.441414 -24.662121 16.441414 # 1 
512 512 1 -15.619343 -24.662121 17.263485 # 1 
513 513 1 -14.797273 -24.662121 16.441414 # 1 
514 514 1 -13.975202 -24.662121 17.263485 # 1 
515 515 1 -13.153131 -24.662121 16.441414 # 1 
516 516 1 -12.331060 -24.662121 17.263485 # 1 
517 517 1 -11.508989 -24.662121 16.441414 # 1 
518 518 1 -10.686919 -24.662121 17.263485 # 1 
519 519 1 -9.864848 -24.662121 16.441414 # 1 
520 520 1 -9.042778 -24.662121 17.263485 # 1 
521 521 1 -24.662121 -24.662121 18.085556 # 1 
522 522 1 -23.840050 -24.662121 18.907625 # 1 
523 523 1 -23.017979 -24.662121 18.085556 # 1 
524 524 1 -22.195910 -24.662121 18.907625 # 1 
525 525 1 -21.373838 -24.662121 18.085556 # 1 
526 526 1 -20.551767 -24.662121 18.907625 # 1 
527 527 1 -19.729696 -24.662121 18.085556 # 1 
528 528 1 -18.907625 -24.662121 18.907625 # 1 
529 529 1 -18.085556 -24.662121 18.085556 # 1 
530 530 1 -17.263485 -24.662121 18.907625 # 1 
531 531 1 -16.441414 -24.662121 18.085556 # 1 
532 532 1 -15.619343 -24.662121 18.907625 # 1 
533 533 1 -14.797273 -24.662121 18.085556 # 1 
534 534 1 -13.975202 -24.662121 18.907625 # 1 
535 535 1 -13.153131 -24.662121 18.085556 # 1 
536 536 1 -12.331060 -24.662121 18.907625 # 1 
537 537 1 -11.508989 -24.662121 18.085556 # 1 
538 538 1 -10.686919 -24.662121 18.907625 # 1 
539 539 1 -9.864848 -24.662121 18.085556 # 1 
540 540 1 -9.042778 -24.662121 18.907625 # 1 
541 541 1 -24.662121 -24.662121 19.729696 # 1 
542 542 1 -23.840050 -24.662121 20.551767 # 1 
543 543 1 -23.017979 -24.662121 19.729696 # 1 
544 544 1 -22.195910 -24.662121 20.551767 # 1 
545 545 1 -21.373838 -24.662121 19.729696 # 1 
546 546 1 -20.551767 -24.662121 20.551767 # 1 
547 547 1 -19.729696 -24.662121 19.729696 # 1 
548 548 1 -18.907625 -24.662121 20.551767 # 1 
549 549 1 -18.085556 -24.662121 19.729696 # 1 
550 550 1 -17.263485 -24.662121 20.551767 # 1 
551 551 1 -16.441414 -24.662121 19.729696 # 1 
552 552 1 -15.619343 -24.662121 20.551767 # 1 
553 553 1 -14.797273 -24.662121 19.729696 # 1 
554 554 1 -13.975202 -24.662121 20.551767 # 1 
555 555 1 -13.153131 -24.662121 19.729696 # 1 
556 556 1 -12.331060 -24.662121 20.551767 # 1 
557 557 1 -11.508989 -24.662121 19.729696 # 1 
558 558 1 -10.686919 -24.662121 20.551767 # 1 
559 559 1 -9.864848 -24.662121 19.729696 # 1 
560 560 1 -9.042778 -24.662121 20.551767 # 1 
561 561 1 -24.662121 -24.662121 21.373838 # 1 
562 562 1 -23.840050 -24.662121 22.195910 # 1 
563 563 1 -23.017979 -24.662121 21.373838 # 1 
564 564 1 -22.195910 -24.662121 22.195910 # 1 
565 565 1 -21.373838 -24.662121 21.373838 # 1 
566 566 1 -20.551767 -24.662121 22.195910 # 1 
567 567 1 -19.729696 -24.662121 21.373838 # 1 
568 568 1 -18.907625 -24.662121 22.195910 # 1 
569 569 1 -18.085556 -24.662121 21.373838 # 1 
570 570 1 -17.263485 -24.662121 22.195910 # 1 
571 571 1 -16.441414 -24.662121 21.373838 # 1 
572 572 1 -15.619343 -24.662121 22.195910 # 1 
573 573 1 -14.797273 -24.662121 21.373838 # 1 
574 574 1 -13.975202 -24.662121 22.195910 # 1 
575 575 1 -13.153131 -24.662121 21.373838 # 1 
576 576 1 -12.331060 -24.662121 22.195910 # 1 
577 577 1 -11.508989 -24.662121 21.373838 # 1 
578 578 1 -10.686919 -24.662121 22.195910 # 1 
579 579 1 -9.864848 -24.662121 21.373838 # 1 
580 580 1 -9.042778 -24.662121 22.195910 # 1 
581 581 1 -24.662121 -24.662121 23.017979 # 1 
582 582 1 -23.840050 -24.662121 23.840050 # 1 
583 583 1 -23.017979 -24.662121 23.017979 # 1 
584 584 1 -22.195910 -24.662121 23.840050 # 1 
585 585 1 -21.373838 -24.662121 23.017979 # 1 
586 586 1 -20.551767 -24.662121 23.840050 # 1 
587 587 1 -19.729696 -24.662121 23.017979 # 1 
588 588 1 -18.907625 -24.662121 23.840050 # 1 
589 589 1 -18.085556 -24.662121 23.017979 # 1 
590 590 1 -17.263485 -24.662121 23.840050 # 1 
591 591 1 -16.441414 -24.662121 23.017979 # 1 
592 592 1 -15.619343 -24.662121 23.840050 # 1 
593 593 1 -14.797273 -24.662121 23.017979 # 1 
594 594 1 -13.975202 -24.662121 23.840050 # 1 
595 595 1 -13.153131 -24.662121 23.017979 # 1 
596 596 1 -12.331060 -24.662121 23.840050 # 1 
597 597 1 -11.508989 -24.662121 23.017979 # 1 
598 598 1 -10.686919 -24.662121 23.840050 # 1 
599 599 1 -9.864848 -24.662121 23.017979 # 1 
600 600 1 -9.042778 -24.662121 23.840050 # 1 
601 601 1 -8.220707 -24.662121 -24.662121 # 1 
602 602 1 -7.398636 -24.662121 -23.840050 # 1 
603 603 1 -6.576566 -24.662121 -24.662121 # 1 
604 604 1 -5.754495 -24.662121 -23.840050 # 1 
605 605 1 -4.932424 -24.662121 -24.662121 # 1 
606 606 1 -4.110353 -24.662121 -23.840050 # 1 
607 607 1 -3.288283 -24.662121 -24.662121 # 1 
608 608 1 -2.466212 -24.662121 -23.840050 # 1 
609 609 1 -1.644141 -24.662121 -24.662121 # 1 
610 610 1 -0.822071 -24.662121 -23.840050 # 1 
611 611 1 0.000000 -24.662121 -24.662121 # 1 
612 612 1 0.822071 -24.662121 -23.840050 # 1 
613 613 1 1.644141 -24.662121 -24.662121 # 1 
614 614 1 2.466212 -24.662121 -23.840050 # 1 
615 615 1 3.288283 -24.662121 -24.662121 # 1 
616 616 1 4.110353 -24.662121 -23.840050 # 1 
617 617 1 4.932424 -24.662121 -24.662121 # 1 
618 618 1 5.754495 -24.662121 -23.840050 # 1 
619 619 1 6.576566 -24.662121 -24.662121 # 1 
620 620 1 7.398636 -24.662121 -23.840050 # 1 
621 621 1 8.220707 -24.662121 -24.662121 # 1 
622 622 1 -8.220707 -24.662121 -23.017979 # 1 
623 623 1 -7.398636 -24.662121 -22.195910 # 1 
624 624 1 -6.576566 -24.662121 -23.017979 # 1 
625 625 1 -5.754495 -24.662121 -22.195910 # 1 
626 626 1 -4.932424 -24.662121 -23.017979 # 1 
627 627 1 -4.110353 -24.662121 -22.195910 # 1 
628 628 1 -3.288283 -24.662121 -23.017979 # 1 
629 629 1 -2.466212 -24.662121 -22.195910 # 1 
630 630 1 -1.644141 -24.662121 -23.017979 # 1 
631 631 1 -0.822071 -24.662121 -22.195910 # 1 
632 632 1 0.000000 -24.662121 -23.017979 # 1 
633 633 1 0.822071 -24.662121 -22.195910 # 1 
634 634 1 1.644141 -24.662121 -23.017979 # 1 
635 635 1 2.466212 -24.662121 -22.195910 # 1 
636 636 1 3.288283 -24.662121 -23.017979 # 1 
637 637 1 4.110353 -24.662121 -22.195910 # 1 
638 638 1 4.932424 -24.662121 -23.017979 # 1 